LAMMPS data file for Ethylene

6 atoms
5 bonds
6 angles

6 atom types
3 bond types
1 angle types

-10 10 xlo xhi
-10 10 ylo yhi
-10 10 zlo zhi

Masses

1 12.011
2 1.008
3 15.999
4 14.007
5 32.065
6 30.974

Atoms # id molecule type charge x y z

1 1 1 0.0 0 0 0
2 1 1 0.0 1.34 0 0
3 1 2 0.0 -0.6 0.9 0
4 1 2 0.0 -0.6 -0.9 0
5 1 2 0.0 1.94 0.9 0
6 1 2 0.0 1.94 -0.9 0

Bonds # id type atom1 atom2

1 2 1 2
2 1 1 3
3 1 1 4
4 1 2 5
5 1 2 6

Angles # id type atom1 atom2 atom3

1 1 2 1 3
2 1 2 1 4
3 1 3 1 4
4 1 1 2 5
5 1 1 2 6
6 1 5 2 6
