ITEM: TIMESTEP
0
ITEM: NUMBER OF ATOMS
6
ITEM: BOX BOUNDS pp pp pp
-1.0000000000000000e+01 1.0000000000000000e+01
-1.0000000000000000e+01 1.0000000000000000e+01
-1.0000000000000000e+01 1.0000000000000000e+01
ITEM: ATOMS id type xs ys zs
1 1 0.5 0.5 0.5
2 1 0.567 0.5 0.5
3 2 0.47 0.545 0.5
4 2 0.47 0.455 0.5
5 2 0.597 0.545 0.5
6 2 0.597 0.455 0.5
ITEM: TIMESTEP
10
ITEM: NUMBER OF ATOMS
6
ITEM: BOX BOUNDS pp pp pp
-1.0000000000000000e+01 1.0000000000000000e+01
-1.0000000000000000e+01 1.0000000000000000e+01
-1.0000000000000000e+01 1.0000000000000000e+01
ITEM: ATOMS id type xs ys zs
1 1 0.500059 0.5 0.5
2 1 0.566941 0.5 0.5
3 2 0.47292 0.547044 0.5
4 2 0.47292 0.452956 0.5
5 2 0.59408 0.547044 0.5
6 2 0.59408 0.452956 0.5
ITEM: TIMESTEP
20
ITEM: NUMBER OF ATOMS
6
ITEM: BOX BOUNDS pp pp pp
-1.0000000000000000e+01 1.0000000000000000e+01
-1.0000000000000000e+01 1.0000000000000000e+01
-1.0000000000000000e+01 1.0000000000000000e+01
ITEM: ATOMS id type xs ys zs
1 1 0.500026 0.5 0.5
2 1 0.566974 0.5 0.5
3 2 0.472851 0.547068 0.5
4 2 0.472851 0.452932 0.5
5 2 0.594149 0.547068 0.5
6 2 0.594149 0.452932 0.5
ITEM: TIMESTEP
29
ITEM: NUMBER OF ATOMS
6
ITEM: BOX BOUNDS pp pp pp
-1.0000000000000000e+01 1.0000000000000000e+01
-1.0000000000000000e+01 1.0000000000000000e+01
-1.0000000000000000e+01 1.0000000000000000e+01
ITEM: ATOMS id type xs ys zs
1 1 0.500025 0.5 0.5
2 1 0.566975 0.5 0.5
3 2 0.47285 0.547068 0.5
4 2 0.47285 0.452932 0.5
5 2 0.59415 0.547068 0.5
6 2 0.59415 0.452932 0.5
